<?xml version="1.0" encoding="UTF-8"?>

<!-- generated on 2023-05-21 17:59:28 by Eclipse SUMO sumo Version 1.15.0
<configuration xmlns:xsi="http://www.w3.org/2001/XMLSchema-instance" xsi:noNamespaceSchemaLocation="http://sumo.dlr.de/xsd/sumoConfiguration.xsd">

    <input>
        <net-file value="simulacao.net.xml"/>
        <route-files value="simulacao.rou.xml"/>
    </input>

    <output>
        <tripinfo-output value="tripinfo.xml"/>
    </output>

    <processing>
        <time-to-teleport value="-1"/>
    </processing>

    <traci_server>
        <remote-port value="52616"/>
    </traci_server>

    <gui_only>
        <gui-settings-file value="simulacao.xml"/>
    </gui_only>

</configuration>
-->

<tripinfos xmlns:xsi="http://www.w3.org/2001/XMLSchema-instance" xsi:noNamespaceSchemaLocation="http://sumo.dlr.de/xsd/tripinfo_file.xsd">
    <tripinfo id="f_0.0" depart="0.00" departLane="E1#1_2" departPos="5.10" departSpeed="11.11" departDelay="0.00" arrival="27.00" arrivalLane="E4#3_0" arrivalPos="121.84" arrivalSpeed="11.16" duration="27.00" routeLength="274.59" waitingTime="0.00" waitingCount="0" stopTime="0.00" timeLoss="2.72" rerouteNo="0" devices="tripinfo_f_0.0" vType="DEFAULT_VEHTYPE" speedFactor="1.06" vaporized=""/>
    <tripinfo id="f_8.0" depart="0.00" departLane="E2#1_1" departPos="5.10" departSpeed="10.42" departDelay="0.00" arrival="31.00" arrivalLane="E3#3_0" arrivalPos="130.16" arrivalSpeed="9.82" duration="31.00" routeLength="285.28" waitingTime="0.00" waitingCount="0" stopTime="0.00" timeLoss="2.67" rerouteNo="0" devices="tripinfo_f_8.0" vType="DEFAULT_VEHTYPE" speedFactor="0.94" vaporized=""/>
    <tripinfo id="f_12.0" depart="0.00" departLane="E4#1_1" departPos="5.10" departSpeed="11.11" departDelay="0.00" arrival="40.00" arrivalLane="E2#3_0" arrivalPos="151.31" arrivalSpeed="11.16" duration="40.00" routeLength="285.81" waitingTime="6.00" waitingCount="1" stopTime="0.00" timeLoss="13.94" rerouteNo="0" devices="tripinfo_f_12.0" vType="DEFAULT_VEHTYPE" speedFactor="1.05" vaporized=""/>
    <tripinfo id="f_13.0" depart="0.00" departLane="E4#1_0" departPos="5.10" departSpeed="11.11" departDelay="0.00" arrival="47.00" arrivalLane="E4#3_0" arrivalPos="121.84" arrivalSpeed="11.53" duration="47.00" routeLength="404.31" waitingTime="7.00" waitingCount="1" stopTime="0.00" timeLoss="13.85" rerouteNo="0" devices="tripinfo_f_13.0" vType="DEFAULT_VEHTYPE" speedFactor="1.12" vaporized=""/>
    <tripinfo id="f_2.0" depart="3.00" departLane="E1#1_0" departPos="5.10" departSpeed="11.11" departDelay="3.00" arrival="60.00" arrivalLane="E3#3_0" arrivalPos="130.16" arrivalSpeed="10.20" duration="57.00" routeLength="578.16" waitingTime="0.00" waitingCount="0" stopTime="0.00" timeLoss="3.98" rerouteNo="0" devices="tripinfo_f_2.0" vType="DEFAULT_VEHTYPE" speedFactor="1.01" vaporized=""/>
    <tripinfo id="f_14.0" depart="2.00" departLane="E4#1_1" departPos="5.10" departSpeed="8.75" departDelay="2.00" arrival="69.00" arrivalLane="E1#3_1" arrivalPos="151.41" arrivalSpeed="10.17" duration="67.00" routeLength="582.18" waitingTime="5.00" waitingCount="1" stopTime="0.00" timeLoss="12.93" rerouteNo="0" devices="tripinfo_f_14.0" vType="DEFAULT_VEHTYPE" speedFactor="0.99" vaporized=""/>
    <tripinfo id="f_15.0" depart="3.00" departLane="E4#1_0" departPos="5.10" departSpeed="9.62" departDelay="3.00" arrival="87.00" arrivalLane="E3#3_0" arrivalPos="130.16" arrivalSpeed="10.24" duration="84.00" routeLength="694.08" waitingTime="4.00" waitingCount="1" stopTime="0.00" timeLoss="15.24" rerouteNo="0" devices="tripinfo_f_15.0" vType="DEFAULT_VEHTYPE" speedFactor="0.93" vaporized=""/>
    <tripinfo id="f_13.1" depart="120.00" departLane="E4#1_0" departPos="5.10" departSpeed="11.11" departDelay="0.00" arrival="159.00" arrivalLane="E4#3_0" arrivalPos="121.84" arrivalSpeed="10.14" duration="39.00" routeLength="404.31" waitingTime="0.00" waitingCount="0" stopTime="0.00" timeLoss="2.21" rerouteNo="0" devices="tripinfo_f_13.1" vType="DEFAULT_VEHTYPE" speedFactor="1.01" vaporized=""/>
    <tripinfo id="f_13.2" depart="240.00" departLane="E4#1_1" departPos="5.10" departSpeed="10.54" departDelay="0.00" arrival="281.00" arrivalLane="E4#3_0" arrivalPos="121.84" arrivalSpeed="10.45" duration="41.00" routeLength="404.31" waitingTime="0.00" waitingCount="0" stopTime="0.00" timeLoss="2.20" rerouteNo="0" devices="tripinfo_f_13.2" vType="DEFAULT_VEHTYPE" speedFactor="0.95" vaporized=""/>
    <tripinfo id="f_14.1" depart="300.00" departLane="E4#1_1" departPos="5.10" departSpeed="11.11" departDelay="0.00" arrival="349.00" arrivalLane="E1#3_2" arrivalPos="151.41" arrivalSpeed="12.89" duration="49.00" routeLength="582.18" waitingTime="0.00" waitingCount="0" stopTime="0.00" timeLoss="3.47" rerouteNo="0" devices="tripinfo_f_14.1" vType="DEFAULT_VEHTYPE" speedFactor="1.17" vaporized=""/>
    <tripinfo id="f_13.3" depart="360.00" departLane="E4#1_1" departPos="5.10" departSpeed="11.11" departDelay="0.00" arrival="393.00" arrivalLane="E4#3_0" arrivalPos="121.84" arrivalSpeed="12.91" duration="33.00" routeLength="404.31" waitingTime="0.00" waitingCount="0" stopTime="0.00" timeLoss="1.45" rerouteNo="0" devices="tripinfo_f_13.3" vType="DEFAULT_VEHTYPE" speedFactor="1.18" vaporized=""/>
    <tripinfo id="f_12.1" depart="400.00" departLane="E4#1_0" departPos="5.10" departSpeed="11.11" departDelay="0.00" arrival="429.00" arrivalLane="E2#3_0" arrivalPos="151.31" arrivalSpeed="10.68" duration="29.00" routeLength="285.81" waitingTime="0.00" waitingCount="0" stopTime="0.00" timeLoss="3.10" rerouteNo="0" devices="tripinfo_f_12.1" vType="DEFAULT_VEHTYPE" speedFactor="1.04" vaporized=""/>
    <tripinfo id="f_15.1" depart="401.00" departLane="E4#1_1" departPos="5.10" departSpeed="11.11" departDelay="1.00" arrival="465.00" arrivalLane="E3#3_1" arrivalPos="130.16" arrivalSpeed="11.45" duration="64.00" routeLength="694.08" waitingTime="0.00" waitingCount="0" stopTime="0.00" timeLoss="5.20" rerouteNo="0" devices="tripinfo_f_15.1" vType="DEFAULT_VEHTYPE" speedFactor="1.09" vaporized=""/>
    <tripinfo id="f_13.4" depart="480.00" departLane="E4#1_1" departPos="5.10" departSpeed="11.11" departDelay="0.00" arrival="515.00" arrivalLane="E4#3_0" arrivalPos="121.84" arrivalSpeed="12.98" duration="35.00" routeLength="404.31" waitingTime="0.00" waitingCount="0" stopTime="0.00" timeLoss="2.88" rerouteNo="0" devices="tripinfo_f_13.4" vType="DEFAULT_VEHTYPE" speedFactor="1.17" vaporized=""/>
    <tripinfo id="f_13.5" depart="600.00" departLane="E4#1_1" departPos="5.10" departSpeed="11.11" departDelay="0.00" arrival="641.00" arrivalLane="E4#3_0" arrivalPos="121.84" arrivalSpeed="10.94" duration="41.00" routeLength="404.31" waitingTime="3.00" waitingCount="1" stopTime="0.00" timeLoss="7.03" rerouteNo="0" devices="tripinfo_f_13.5" vType="DEFAULT_VEHTYPE" speedFactor="1.08" vaporized=""/>
    <tripinfo id="f_14.2" depart="601.00" departLane="E4#1_0" departPos="5.10" departSpeed="11.11" departDelay="1.00" arrival="656.00" arrivalLane="E1#3_2" arrivalPos="151.41" arrivalSpeed="12.09" duration="55.00" routeLength="582.18" waitingTime="0.00" waitingCount="0" stopTime="0.00" timeLoss="7.07" rerouteNo="0" devices="tripinfo_f_14.2" vType="DEFAULT_VEHTYPE" speedFactor="1.12" vaporized=""/>
    <tripinfo id="f_13.6" depart="720.00" departLane="E4#1_1" departPos="5.10" departSpeed="10.16" departDelay="0.00" arrival="763.00" arrivalLane="E4#3_0" arrivalPos="121.84" arrivalSpeed="9.83" duration="43.00" routeLength="404.31" waitingTime="0.00" waitingCount="0" stopTime="0.00" timeLoss="2.53" rerouteNo="0" devices="tripinfo_f_13.6" vType="DEFAULT_VEHTYPE" speedFactor="0.91" vaporized=""/>
    <tripinfo id="f_12.2" depart="800.00" departLane="E4#1_0" departPos="5.10" departSpeed="11.11" departDelay="0.00" arrival="829.00" arrivalLane="E2#3_0" arrivalPos="151.31" arrivalSpeed="11.28" duration="29.00" routeLength="285.81" waitingTime="0.00" waitingCount="0" stopTime="0.00" timeLoss="3.00" rerouteNo="0" devices="tripinfo_f_12.2" vType="DEFAULT_VEHTYPE" speedFactor="1.03" vaporized=""/>
    <tripinfo id="f_15.2" depart="801.00" departLane="E4#1_1" departPos="5.10" departSpeed="10.91" departDelay="1.00" arrival="872.00" arrivalLane="E3#3_0" arrivalPos="130.16" arrivalSpeed="10.86" duration="71.00" routeLength="694.08" waitingTime="0.00" waitingCount="0" stopTime="0.00" timeLoss="5.90" rerouteNo="0" devices="tripinfo_f_15.2" vType="DEFAULT_VEHTYPE" speedFactor="0.98" vaporized=""/>
    <tripinfo id="f_13.7" depart="840.00" departLane="E4#1_1" departPos="5.10" departSpeed="11.09" departDelay="0.00" arrival="879.00" arrivalLane="E4#3_0" arrivalPos="121.84" arrivalSpeed="10.66" duration="39.00" routeLength="404.31" waitingTime="0.00" waitingCount="0" stopTime="0.00" timeLoss="2.19" rerouteNo="0" devices="tripinfo_f_13.7" vType="DEFAULT_VEHTYPE" speedFactor="1.00" vaporized=""/>
    <tripinfo id="f_14.3" depart="900.00" departLane="E4#1_1" departPos="5.10" departSpeed="11.11" departDelay="0.00" arrival="955.00" arrivalLane="E1#3_1" arrivalPos="151.41" arrivalSpeed="11.32" duration="55.00" routeLength="582.18" waitingTime="0.00" waitingCount="0" stopTime="0.00" timeLoss="3.88" rerouteNo="0" devices="tripinfo_f_14.3" vType="DEFAULT_VEHTYPE" speedFactor="1.04" vaporized=""/>
    <tripinfo id="f_13.8" depart="960.00" departLane="E4#1_0" departPos="5.10" departSpeed="9.91" departDelay="0.00" arrival="1004.00" arrivalLane="E4#3_0" arrivalPos="121.84" arrivalSpeed="9.52" duration="44.00" routeLength="404.31" waitingTime="0.00" waitingCount="0" stopTime="0.00" timeLoss="2.84" rerouteNo="0" devices="tripinfo_f_13.8" vType="DEFAULT_VEHTYPE" speedFactor="0.89" vaporized=""/>
    <tripinfo id="f_13.9" depart="1080.00" departLane="E4#1_0" departPos="5.10" departSpeed="10.07" departDelay="0.00" arrival="1123.00" arrivalLane="E4#3_0" arrivalPos="121.84" arrivalSpeed="9.75" duration="43.00" routeLength="404.31" waitingTime="0.00" waitingCount="0" stopTime="0.00" timeLoss="2.85" rerouteNo="0" devices="tripinfo_f_13.9" vType="DEFAULT_VEHTYPE" speedFactor="0.91" vaporized=""/>
    <tripinfo id="f_12.3" depart="1200.00" departLane="E4#1_1" departPos="5.10" departSpeed="11.11" departDelay="0.00" arrival="1228.00" arrivalLane="E2#3_0" arrivalPos="151.31" arrivalSpeed="11.18" duration="28.00" routeLength="285.81" waitingTime="0.00" waitingCount="0" stopTime="0.00" timeLoss="3.76" rerouteNo="0" devices="tripinfo_f_12.3" vType="DEFAULT_VEHTYPE" speedFactor="1.10" vaporized=""/>
    <tripinfo id="f_13.10" depart="1200.00" departLane="E4#1_0" departPos="5.10" departSpeed="11.11" departDelay="0.00" arrival="1240.00" arrivalLane="E4#3_0" arrivalPos="121.84" arrivalSpeed="10.36" duration="40.00" routeLength="404.31" waitingTime="0.00" waitingCount="0" stopTime="0.00" timeLoss="3.11" rerouteNo="0" devices="tripinfo_f_13.10" vType="DEFAULT_VEHTYPE" speedFactor="1.01" vaporized=""/>
    <tripinfo id="f_14.4" depart="1202.00" departLane="E4#1_0" departPos="5.10" departSpeed="6.27" departDelay="2.00" arrival="1261.00" arrivalLane="E1#3_1" arrivalPos="151.41" arrivalSpeed="11.10" duration="59.00" routeLength="582.18" waitingTime="3.00" waitingCount="1" stopTime="0.00" timeLoss="10.42" rerouteNo="0" devices="tripinfo_f_14.4" vType="DEFAULT_VEHTYPE" speedFactor="1.10" vaporized=""/>
    <tripinfo id="f_15.3" depart="1203.00" departLane="E4#1_1" departPos="5.10" departSpeed="8.44" departDelay="3.00" arrival="1282.00" arrivalLane="E3#3_0" arrivalPos="130.16" arrivalSpeed="9.93" duration="79.00" routeLength="694.08" waitingTime="0.00" waitingCount="0" stopTime="0.00" timeLoss="9.53" rerouteNo="0" devices="tripinfo_f_15.3" vType="DEFAULT_VEHTYPE" speedFactor="0.92" vaporized=""/>
    <tripinfo id="f_13.11" depart="1320.00" departLane="E4#1_0" departPos="5.10" departSpeed="11.11" departDelay="0.00" arrival="1357.00" arrivalLane="E4#3_0" arrivalPos="121.84" arrivalSpeed="11.07" duration="37.00" routeLength="404.31" waitingTime="0.00" waitingCount="0" stopTime="0.00" timeLoss="3.16" rerouteNo="0" devices="tripinfo_f_13.11" vType="DEFAULT_VEHTYPE" speedFactor="1.10" vaporized=""/>
    <tripinfo id="f_13.12" depart="1440.00" departLane="E4#1_0" departPos="5.10" departSpeed="9.13" departDelay="0.00" arrival="1488.00" arrivalLane="E4#3_0" arrivalPos="121.84" arrivalSpeed="8.67" duration="48.00" routeLength="404.31" waitingTime="0.00" waitingCount="0" stopTime="0.00" timeLoss="3.56" rerouteNo="0" devices="tripinfo_f_13.12" vType="DEFAULT_VEHTYPE" speedFactor="0.82" vaporized=""/>
    <tripinfo id="f_14.5" depart="1500.00" departLane="E4#1_1" departPos="5.10" departSpeed="11.11" departDelay="0.00" arrival="1556.00" arrivalLane="E1#3_1" arrivalPos="151.41" arrivalSpeed="10.80" duration="56.00" routeLength="582.18" waitingTime="0.00" waitingCount="0" stopTime="0.00" timeLoss="4.01" rerouteNo="0" devices="tripinfo_f_14.5" vType="DEFAULT_VEHTYPE" speedFactor="1.04" vaporized=""/>
    <tripinfo id="f_13.13" depart="1560.00" departLane="E4#1_1" departPos="5.10" departSpeed="11.11" departDelay="0.00" arrival="1599.00" arrivalLane="E4#3_0" arrivalPos="121.84" arrivalSpeed="10.17" duration="39.00" routeLength="404.31" waitingTime="0.00" waitingCount="0" stopTime="0.00" timeLoss="2.35" rerouteNo="0" devices="tripinfo_f_13.13" vType="DEFAULT_VEHTYPE" speedFactor="1.02" vaporized=""/>
    <tripinfo id="f_12.4" depart="1600.00" departLane="E4#1_0" departPos="5.10" departSpeed="8.15" departDelay="0.00" arrival="1641.00" arrivalLane="E2#3_0" arrivalPos="151.31" arrivalSpeed="7.26" duration="41.00" routeLength="285.81" waitingTime="0.00" waitingCount="0" stopTime="0.00" timeLoss="4.17" rerouteNo="0" devices="tripinfo_f_12.4" vType="DEFAULT_VEHTYPE" speedFactor="0.73" vaporized=""/>
    <tripinfo id="f_15.4" depart="1603.00" departLane="E4#1_1" departPos="5.10" departSpeed="11.11" departDelay="3.00" arrival="1665.00" arrivalLane="E3#3_1" arrivalPos="130.16" arrivalSpeed="12.43" duration="62.00" routeLength="694.08" waitingTime="0.00" waitingCount="0" stopTime="0.00" timeLoss="5.83" rerouteNo="0" devices="tripinfo_f_15.4" vType="DEFAULT_VEHTYPE" speedFactor="1.14" vaporized=""/>
    <tripinfo id="f_13.14" depart="1680.00" departLane="E4#1_0" departPos="5.10" departSpeed="11.11" departDelay="0.00" arrival="1719.00" arrivalLane="E4#3_0" arrivalPos="121.84" arrivalSpeed="10.09" duration="39.00" routeLength="404.31" waitingTime="0.00" waitingCount="0" stopTime="0.00" timeLoss="2.08" rerouteNo="0" devices="tripinfo_f_13.14" vType="DEFAULT_VEHTYPE" speedFactor="1.00" vaporized=""/>
    <tripinfo id="f_13.15" depart="1800.00" departLane="E4#1_1" departPos="5.10" departSpeed="9.76" departDelay="0.00" arrival="1846.00" arrivalLane="E4#3_0" arrivalPos="121.84" arrivalSpeed="8.71" duration="46.00" routeLength="404.31" waitingTime="0.00" waitingCount="0" stopTime="0.00" timeLoss="4.33" rerouteNo="0" devices="tripinfo_f_13.15" vType="DEFAULT_VEHTYPE" speedFactor="0.88" vaporized=""/>
    <tripinfo id="f_14.6" depart="1800.00" departLane="E4#1_0" departPos="5.10" departSpeed="11.11" departDelay="0.00" arrival="1855.00" arrivalLane="E1#3_1" arrivalPos="151.41" arrivalSpeed="11.18" duration="55.00" routeLength="582.18" waitingTime="0.00" waitingCount="0" stopTime="0.00" timeLoss="5.49" rerouteNo="0" devices="tripinfo_f_14.6" vType="DEFAULT_VEHTYPE" speedFactor="1.08" vaporized=""/>
    <tripinfo id="f_13.16" depart="1920.00" departLane="E4#1_0" departPos="5.10" departSpeed="11.11" departDelay="0.00" arrival="1958.00" arrivalLane="E4#3_0" arrivalPos="121.84" arrivalSpeed="10.91" duration="38.00" routeLength="404.31" waitingTime="0.00" waitingCount="0" stopTime="0.00" timeLoss="2.10" rerouteNo="0" devices="tripinfo_f_13.16" vType="DEFAULT_VEHTYPE" speedFactor="1.03" vaporized=""/>
    <tripinfo id="f_12.5" depart="2000.00" departLane="E4#1_1" departPos="5.10" departSpeed="11.11" departDelay="0.00" arrival="2027.00" arrivalLane="E2#3_0" arrivalPos="151.31" arrivalSpeed="11.04" duration="27.00" routeLength="285.81" waitingTime="0.00" waitingCount="0" stopTime="0.00" timeLoss="2.28" rerouteNo="0" devices="tripinfo_f_12.5" vType="DEFAULT_VEHTYPE" speedFactor="1.09" vaporized=""/>
    <tripinfo id="f_15.5" depart="2000.00" departLane="E4#1_0" departPos="5.10" departSpeed="11.11" departDelay="0.00" arrival="2068.00" arrivalLane="E3#3_1" arrivalPos="130.16" arrivalSpeed="11.34" duration="68.00" routeLength="694.08" waitingTime="0.00" waitingCount="0" stopTime="0.00" timeLoss="6.14" rerouteNo="0" devices="tripinfo_f_15.5" vType="DEFAULT_VEHTYPE" speedFactor="1.03" vaporized=""/>
    <tripinfo id="f_13.17" depart="2040.00" departLane="E4#1_1" departPos="5.10" departSpeed="11.11" departDelay="0.00" arrival="2083.00" arrivalLane="E4#3_0" arrivalPos="121.84" arrivalSpeed="10.80" duration="43.00" routeLength="404.31" waitingTime="1.00" waitingCount="1" stopTime="0.00" timeLoss="7.12" rerouteNo="0" devices="tripinfo_f_13.17" vType="DEFAULT_VEHTYPE" speedFactor="1.03" vaporized=""/>
    <tripinfo id="f_14.7" depart="2100.00" departLane="E4#1_1" departPos="5.10" departSpeed="9.90" departDelay="0.00" arrival="2165.00" arrivalLane="E1#3_0" arrivalPos="151.41" arrivalSpeed="9.75" duration="65.00" routeLength="582.18" waitingTime="0.00" waitingCount="0" stopTime="0.00" timeLoss="5.30" rerouteNo="0" devices="tripinfo_f_14.7" vType="DEFAULT_VEHTYPE" speedFactor="0.89" vaporized=""/>
    <tripinfo id="f_13.18" depart="2160.00" departLane="E4#1_0" departPos="5.10" departSpeed="10.31" departDelay="0.00" arrival="2202.00" arrivalLane="E4#3_0" arrivalPos="121.84" arrivalSpeed="9.35" duration="42.00" routeLength="404.31" waitingTime="0.00" waitingCount="0" stopTime="0.00" timeLoss="2.67" rerouteNo="0" devices="tripinfo_f_13.18" vType="DEFAULT_VEHTYPE" speedFactor="0.93" vaporized=""/>
    <tripinfo id="f_13.19" depart="2280.00" departLane="E4#1_1" departPos="5.10" departSpeed="9.70" departDelay="0.00" arrival="2325.00" arrivalLane="E4#3_0" arrivalPos="121.84" arrivalSpeed="9.32" duration="45.00" routeLength="404.31" waitingTime="0.00" waitingCount="0" stopTime="0.00" timeLoss="3.20" rerouteNo="0" devices="tripinfo_f_13.19" vType="DEFAULT_VEHTYPE" speedFactor="0.87" vaporized=""/>
    <tripinfo id="f_12.6" depart="2400.00" departLane="E4#1_1" departPos="5.10" departSpeed="11.11" departDelay="0.00" arrival="2429.00" arrivalLane="E2#3_0" arrivalPos="151.31" arrivalSpeed="10.64" duration="29.00" routeLength="285.81" waitingTime="0.00" waitingCount="0" stopTime="0.00" timeLoss="2.63" rerouteNo="0" devices="tripinfo_f_12.6" vType="DEFAULT_VEHTYPE" speedFactor="1.00" vaporized=""/>
    <tripinfo id="f_13.20" depart="2402.00" departLane="E4#1_1" departPos="5.10" departSpeed="4.79" departDelay="2.00" arrival="2442.00" arrivalLane="E4#3_0" arrivalPos="121.84" arrivalSpeed="11.16" duration="40.00" routeLength="404.31" waitingTime="0.00" waitingCount="0" stopTime="0.00" timeLoss="6.66" rerouteNo="0" devices="tripinfo_f_13.20" vType="DEFAULT_VEHTYPE" speedFactor="1.10" vaporized=""/>
    <tripinfo id="f_15.6" depart="2402.00" departLane="E4#1_0" departPos="5.10" departSpeed="10.61" departDelay="2.00" arrival="2467.00" arrivalLane="E3#3_1" arrivalPos="130.16" arrivalSpeed="12.00" duration="65.00" routeLength="694.08" waitingTime="0.00" waitingCount="0" stopTime="0.00" timeLoss="5.87" rerouteNo="0" devices="tripinfo_f_15.6" vType="DEFAULT_VEHTYPE" speedFactor="1.09" vaporized=""/>
    <tripinfo id="f_14.8" depart="2400.00" departLane="E4#1_0" departPos="5.10" departSpeed="9.25" departDelay="0.00" arrival="2472.00" arrivalLane="E1#3_0" arrivalPos="151.41" arrivalSpeed="8.68" duration="72.00" routeLength="582.18" waitingTime="0.00" waitingCount="0" stopTime="0.00" timeLoss="7.82" rerouteNo="0" devices="tripinfo_f_14.8" vType="DEFAULT_VEHTYPE" speedFactor="0.83" vaporized=""/>
    <tripinfo id="f_13.21" depart="2520.00" departLane="E4#1_0" departPos="5.10" departSpeed="11.11" departDelay="0.00" arrival="2554.00" arrivalLane="E4#3_0" arrivalPos="121.84" arrivalSpeed="11.80" duration="34.00" routeLength="404.31" waitingTime="0.00" waitingCount="0" stopTime="0.00" timeLoss="2.00" rerouteNo="0" devices="tripinfo_f_13.21" vType="DEFAULT_VEHTYPE" speedFactor="1.15" vaporized=""/>
    <tripinfo id="f_13.22" depart="2640.00" departLane="E4#1_1" departPos="5.10" departSpeed="11.11" departDelay="0.00" arrival="2675.00" arrivalLane="E4#3_0" arrivalPos="121.84" arrivalSpeed="11.90" duration="35.00" routeLength="404.31" waitingTime="0.00" waitingCount="0" stopTime="0.00" timeLoss="1.63" rerouteNo="0" devices="tripinfo_f_13.22" vType="DEFAULT_VEHTYPE" speedFactor="1.11" vaporized=""/>
    <tripinfo id="f_14.9" depart="2700.00" departLane="E4#1_1" departPos="5.10" departSpeed="11.11" departDelay="0.00" arrival="2750.00" arrivalLane="E1#3_2" arrivalPos="151.41" arrivalSpeed="12.46" duration="50.00" routeLength="582.18" waitingTime="0.00" waitingCount="0" stopTime="0.00" timeLoss="3.69" rerouteNo="0" devices="tripinfo_f_14.9" vType="DEFAULT_VEHTYPE" speedFactor="1.15" vaporized=""/>
    <tripinfo id="f_13.23" depart="2760.00" departLane="E4#1_0" departPos="5.10" departSpeed="9.83" departDelay="0.00" arrival="2805.00" arrivalLane="E4#3_0" arrivalPos="121.84" arrivalSpeed="9.72" duration="45.00" routeLength="404.31" waitingTime="0.00" waitingCount="0" stopTime="0.00" timeLoss="3.77" rerouteNo="0" devices="tripinfo_f_13.23" vType="DEFAULT_VEHTYPE" speedFactor="0.88" vaporized=""/>
    <tripinfo id="f_12.7" depart="2800.00" departLane="E4#1_0" departPos="5.10" departSpeed="11.11" departDelay="0.00" arrival="2829.00" arrivalLane="E2#3_0" arrivalPos="151.31" arrivalSpeed="10.85" duration="29.00" routeLength="285.81" waitingTime="0.00" waitingCount="0" stopTime="0.00" timeLoss="2.82" rerouteNo="0" devices="tripinfo_f_12.7" vType="DEFAULT_VEHTYPE" speedFactor="1.02" vaporized=""/>
    <tripinfo id="f_15.7" depart="2801.00" departLane="E4#1_1" departPos="5.10" departSpeed="11.11" departDelay="1.00" arrival="2871.00" arrivalLane="E3#3_0" arrivalPos="130.16" arrivalSpeed="10.00" duration="70.00" routeLength="694.08" waitingTime="0.00" waitingCount="0" stopTime="0.00" timeLoss="6.06" rerouteNo="0" devices="tripinfo_f_15.7" vType="DEFAULT_VEHTYPE" speedFactor="1.01" vaporized=""/>
    <tripinfo id="f_13.24" depart="2880.00" departLane="E4#1_0" departPos="5.10" departSpeed="9.75" departDelay="0.00" arrival="2925.00" arrivalLane="E4#3_0" arrivalPos="121.84" arrivalSpeed="8.47" duration="45.00" routeLength="404.31" waitingTime="0.00" waitingCount="0" stopTime="0.00" timeLoss="2.74" rerouteNo="0" devices="tripinfo_f_13.24" vType="DEFAULT_VEHTYPE" speedFactor="0.88" vaporized=""/>
    <tripinfo id="f_13.25" depart="3000.00" departLane="E4#1_1" departPos="5.10" departSpeed="8.36" departDelay="0.00" arrival="3053.00" arrivalLane="E4#3_0" arrivalPos="121.84" arrivalSpeed="7.57" duration="53.00" routeLength="404.31" waitingTime="0.00" waitingCount="0" stopTime="0.00" timeLoss="3.85" rerouteNo="0" devices="tripinfo_f_13.25" vType="DEFAULT_VEHTYPE" speedFactor="0.75" vaporized=""/>
    <tripinfo id="f_14.10" depart="3000.00" departLane="E4#1_0" departPos="5.10" departSpeed="11.11" departDelay="0.00" arrival="3055.00" arrivalLane="E1#3_1" arrivalPos="151.41" arrivalSpeed="12.04" duration="55.00" routeLength="582.18" waitingTime="2.00" waitingCount="1" stopTime="0.00" timeLoss="8.24" rerouteNo="0" devices="tripinfo_f_14.10" vType="DEFAULT_VEHTYPE" speedFactor="1.13" vaporized=""/>
    <tripinfo id="f_13.26" depart="3120.00" departLane="E4#1_0" departPos="5.10" departSpeed="10.17" departDelay="0.00" arrival="3163.00" arrivalLane="E4#3_0" arrivalPos="121.84" arrivalSpeed="9.44" duration="43.00" routeLength="404.31" waitingTime="0.00" waitingCount="0" stopTime="0.00" timeLoss="2.54" rerouteNo="0" devices="tripinfo_f_13.26" vType="DEFAULT_VEHTYPE" speedFactor="0.92" vaporized=""/>
    <tripinfo id="f_12.8" depart="3200.00" departLane="E4#1_0" departPos="5.10" departSpeed="9.68" departDelay="0.00" arrival="3233.00" arrivalLane="E2#3_0" arrivalPos="151.31" arrivalSpeed="8.67" duration="33.00" routeLength="285.81" waitingTime="0.00" waitingCount="0" stopTime="0.00" timeLoss="3.05" rerouteNo="0" devices="tripinfo_f_12.8" vType="DEFAULT_VEHTYPE" speedFactor="0.87" vaporized=""/>
    <tripinfo id="f_15.8" depart="3201.00" departLane="E4#1_1" departPos="5.10" departSpeed="11.11" departDelay="1.00" arrival="3259.00" arrivalLane="E3#3_1" arrivalPos="130.16" arrivalSpeed="13.03" duration="58.00" routeLength="694.08" waitingTime="0.00" waitingCount="0" stopTime="0.00" timeLoss="4.82" rerouteNo="0" devices="tripinfo_f_15.8" vType="DEFAULT_VEHTYPE" speedFactor="1.21" vaporized=""/>
    <tripinfo id="f_13.27" depart="3240.00" departLane="E4#1_0" departPos="5.10" departSpeed="11.11" departDelay="0.00" arrival="3277.00" arrivalLane="E4#3_0" arrivalPos="121.84" arrivalSpeed="11.97" duration="37.00" routeLength="404.31" waitingTime="0.00" waitingCount="0" stopTime="0.00" timeLoss="2.33" rerouteNo="0" devices="tripinfo_f_13.27" vType="DEFAULT_VEHTYPE" speedFactor="1.08" vaporized=""/>
    <tripinfo id="f_14.11" depart="3300.00" departLane="E4#1_1" departPos="5.10" departSpeed="9.89" departDelay="0.00" arrival="3365.00" arrivalLane="E1#3_0" arrivalPos="151.41" arrivalSpeed="8.93" duration="65.00" routeLength="582.18" waitingTime="0.00" waitingCount="0" stopTime="0.00" timeLoss="5.25" rerouteNo="0" devices="tripinfo_f_14.11" vType="DEFAULT_VEHTYPE" speedFactor="0.89" vaporized=""/>
    <tripinfo id="f_13.28" depart="3360.00" departLane="E4#1_0" departPos="5.10" departSpeed="10.76" departDelay="0.00" arrival="3405.00" arrivalLane="E4#3_0" arrivalPos="121.84" arrivalSpeed="10.16" duration="45.00" routeLength="404.31" waitingTime="3.00" waitingCount="1" stopTime="0.00" timeLoss="6.95" rerouteNo="0" devices="tripinfo_f_13.28" vType="DEFAULT_VEHTYPE" speedFactor="0.97" vaporized=""/>
    <tripinfo id="f_13.29" depart="3480.00" departLane="E4#1_1" departPos="5.10" departSpeed="10.93" departDelay="0.00" arrival="3520.00" arrivalLane="E4#3_0" arrivalPos="121.84" arrivalSpeed="10.36" duration="40.00" routeLength="404.31" waitingTime="0.00" waitingCount="0" stopTime="0.00" timeLoss="2.11" rerouteNo="0" devices="tripinfo_f_13.29" vType="DEFAULT_VEHTYPE" speedFactor="0.98" vaporized=""/>
    <tripinfo id="f_12.9" depart="3600.00" departLane="E4#1_0" departPos="5.10" departSpeed="11.11" departDelay="0.00" arrival="3628.00" arrivalLane="E2#3_0" arrivalPos="151.31" arrivalSpeed="12.19" duration="28.00" routeLength="285.81" waitingTime="0.00" waitingCount="0" stopTime="0.00" timeLoss="4.25" rerouteNo="0" devices="tripinfo_f_12.9" vType="DEFAULT_VEHTYPE" speedFactor="1.11" vaporized=""/>
    <tripinfo id="f_13.30" depart="3600.00" departLane="E4#1_1" departPos="5.10" departSpeed="11.11" departDelay="0.00" arrival="3639.00" arrivalLane="E4#3_1" arrivalPos="121.84" arrivalSpeed="11.03" duration="39.00" routeLength="404.31" waitingTime="0.00" waitingCount="0" stopTime="0.00" timeLoss="4.22" rerouteNo="0" devices="tripinfo_f_13.30" vType="DEFAULT_VEHTYPE" speedFactor="1.07" vaporized=""/>
    <tripinfo id="f_14.12" depart="3602.00" departLane="E4#1_0" departPos="5.10" departSpeed="12.17" departDelay="2.00" arrival="3655.00" arrivalLane="E1#3_2" arrivalPos="151.41" arrivalSpeed="12.85" duration="53.00" routeLength="582.18" waitingTime="0.00" waitingCount="0" stopTime="0.00" timeLoss="8.04" rerouteNo="0" devices="tripinfo_f_14.12" vType="DEFAULT_VEHTYPE" speedFactor="1.21" vaporized=""/>
    <tripinfo id="f_15.9" depart="3602.00" departLane="E4#1_1" departPos="5.10" departSpeed="11.04" departDelay="2.00" arrival="3669.00" arrivalLane="E3#3_1" arrivalPos="130.16" arrivalSpeed="12.35" duration="67.00" routeLength="694.08" waitingTime="0.00" waitingCount="0" stopTime="0.00" timeLoss="11.41" rerouteNo="0" devices="tripinfo_f_15.9" vType="DEFAULT_VEHTYPE" speedFactor="1.15" vaporized=""/>
    <tripinfo id="f_13.31" depart="3744.00" departLane="E4#1_0" departPos="5.10" departSpeed="9.71" departDelay="0.00" arrival="3790.00" arrivalLane="E4#3_0" arrivalPos="121.84" arrivalSpeed="9.20" duration="46.00" routeLength="404.31" waitingTime="0.00" waitingCount="0" stopTime="0.00" timeLoss="3.66" rerouteNo="0" devices="tripinfo_f_13.31" vType="DEFAULT_VEHTYPE" speedFactor="0.87" vaporized=""/>
    <tripinfo id="f_13.32" depart="3888.00" departLane="E4#1_1" departPos="5.10" departSpeed="10.57" departDelay="0.00" arrival="3929.00" arrivalLane="E4#3_0" arrivalPos="121.84" arrivalSpeed="9.62" duration="41.00" routeLength="404.31" waitingTime="0.00" waitingCount="0" stopTime="0.00" timeLoss="2.62" rerouteNo="0" devices="tripinfo_f_13.32" vType="DEFAULT_VEHTYPE" speedFactor="0.95" vaporized=""/>
    <tripinfo id="f_14.13" depart="3960.00" departLane="E4#1_1" departPos="5.10" departSpeed="10.39" departDelay="0.00" arrival="4022.00" arrivalLane="E1#3_0" arrivalPos="151.41" arrivalSpeed="10.19" duration="62.00" routeLength="582.18" waitingTime="0.00" waitingCount="0" stopTime="0.00" timeLoss="4.59" rerouteNo="0" devices="tripinfo_f_14.13" vType="DEFAULT_VEHTYPE" speedFactor="0.93" vaporized=""/>
    <tripinfo id="f_13.33" depart="4032.00" departLane="E4#1_1" departPos="5.10" departSpeed="11.11" departDelay="0.00" arrival="4070.00" arrivalLane="E4#3_0" arrivalPos="121.84" arrivalSpeed="11.35" duration="38.00" routeLength="404.31" waitingTime="0.00" waitingCount="0" stopTime="0.00" timeLoss="1.74" rerouteNo="0" devices="tripinfo_f_13.33" vType="DEFAULT_VEHTYPE" speedFactor="1.02" vaporized=""/>
    <tripinfo id="f_12.10" depart="4080.00" departLane="E4#1_1" departPos="5.10" departSpeed="10.89" departDelay="0.00" arrival="4109.00" arrivalLane="E2#3_0" arrivalPos="151.31" arrivalSpeed="9.81" duration="29.00" routeLength="285.81" waitingTime="0.00" waitingCount="0" stopTime="0.00" timeLoss="2.29" rerouteNo="0" devices="tripinfo_f_12.10" vType="DEFAULT_VEHTYPE" speedFactor="0.98" vaporized=""/>